/*--------------------------------*- C++ -*----------------------------------*\
| =========                 |                                                 |
| \\      /  F ield         | OpenFOAM: The Open Source CFD Toolbox           |
|  \\    /   O peration     | Version:  v1912                                 |
|   \\  /    A nd           | Website:  www.openfoam.com                      |
|    \\/     M anipulation  |                                                 |
\*---------------------------------------------------------------------------*/
FoamFile
{
    version     2.0;
    format      ascii;
    class       volScalarField;
    location    "0.002";
    object      T;
}
// * * * * * * * * * * * * * * * * * * * * * * * * * * * * * * * * * * * * * //

dimensions      [0 0 0 0 0 0 0];


internalField   nonuniform List<scalar> 
200
(
-3.95437
-3.86369
-3.77356
-3.684
-3.595
-3.50656
-3.41869
-3.33137
-3.24462
-3.15844
-3.07281
-2.98775
-2.90325
-2.81931
-2.73594
-2.65312
-2.57087
-2.48919
-2.40806
-2.3275
-2.2475
-2.16806
-2.08919
-2.01087
-1.93312
-1.85594
-1.77931
-1.70325
-1.62775
-1.55281
-1.47844
-1.40462
-1.33137
-1.25869
-1.18656
-1.115
-1.044
-0.973562
-0.903687
-0.834375
-0.765625
-0.697437
-0.629812
-0.56275
-0.49625
-0.430312
-0.364937
-0.300125
-0.235875
-0.172187
-0.109062
-0.0465
0.0155
0.0769375
0.137813
0.198125
0.257875
0.317063
0.375688
0.43375
0.49125
0.548188
0.604563
0.660375
0.715625
0.770313
0.824438
0.878
0.931
0.983438
1.03531
1.08663
1.13738
1.18756
1.23719
1.28625
1.33475
1.38269
1.43006
1.47688
1.52313
1.56881
1.61394
1.6585
1.7025
1.74594
1.78881
1.83113
1.87288
1.91406
1.95469
1.99475
2.03425
2.07319
2.11156
2.14938
2.18663
2.22331
2.25944
2.295
2.33
2.36444
2.39831
2.43163
2.46438
2.49656
2.52819
2.55925
2.58975
2.61969
2.64906
2.67788
2.70613
2.73381
2.76094
2.7875
2.8135
2.83894
2.86381
2.88813
2.91188
2.93506
2.95769
2.97975
3.00125
3.02219
3.04256
3.06238
3.08163
3.10031
3.11844
3.136
3.153
3.16944
3.18531
3.20063
3.21538
3.22956
3.24319
3.25625
3.26875
3.28069
3.29206
3.30288
3.31313
3.32281
3.33194
3.3405
3.3485
3.35594
3.36281
3.36913
3.37488
3.38006
3.38469
3.38875
3.39225
3.39519
3.39756
3.39938
3.40063
3.40131
3.40144
3.401
3.4
3.39844
3.39631
3.39363
3.39038
3.38656
3.38219
3.37725
3.37175
3.36569
3.35906
3.35188
3.34413
3.33581
3.32694
3.3175
3.3075
3.29694
3.28581
3.27413
3.26188
3.24906
3.23569
3.22175
3.20725
3.19219
3.17656
3.16038
3.14363
3.12631
3.10844
3.09
3.071
3.05144
3.03131
3.01062
)
;

boundaryField
{
    left
    {
        type            fixedValue;
        value           uniform -4;
    }
    right
    {
        type            fixedValue;
        value           uniform 3;
    }
    emptyWall
    {
        type            empty;
    }
}


// ************************************************************************* //
